# vtk DataFile Version 3.0
 Correlation data from SS Pipeline (Liam Myhill)
ASCII
DATASET STRUCTURED_GRID
DIMENSIONS 100 100 1
POINTS 10000 double
0.0 0.0 0.0 1.1247828282828252 0.0 0.0 2.2495656565656503 0.0 0.0 
3.3743484848484755 0.0 0.0 4.499131313131301 0.0 0.0 5.623914141414126 0.0 0.0 
6.748696969696951 0.0 0.0 7.873479797979776 0.0 0.0 8.998262626262601 0.0 0.0 
10.123045454545426 0.0 0.0 11.247828282828252 0.0 0.0 12.372611111111077 0.0 0.0 
13.497393939393902 0.0 0.0 14.622176767676727 0.0 0.0 15.746959595959552 0.0 0.0 
16.871742424242377 0.0 0.0 17.996525252525203 0.0 0.0 19.121308080808028 0.0 0.0 
20.246090909090853 0.0 0.0 21.370873737373678 0.0 0.0 22.495656565656503 0.0 0.0 
23.62043939393933 0.0 0.0 24.745222222222154 0.0 0.0 25.87000505050498 0.0 0.0 
26.994787878787804 0.0 0.0 28.11957070707063 0.0 0.0 29.244353535353454 0.0 0.0 
30.36913636363628 0.0 0.0 31.493919191919105 0.0 0.0 32.61870202020193 0.0 0.0 
33.743484848484755 0.0 0.0 34.86826767676758 0.0 0.0 35.993050505050405 0.0 0.0 
37.11783333333323 0.0 0.0 38.242616161616056 0.0 0.0 39.36739898989888 0.0 0.0 
40.492181818181706 0.0 0.0 41.61696464646453 0.0 0.0 42.741747474747356 0.0 0.0 
43.86653030303018 0.0 0.0 44.99131313131301 0.0 0.0 46.11609595959583 0.0 0.0 
47.24087878787866 0.0 0.0 48.36566161616148 0.0 0.0 49.49044444444431 0.0 0.0 
50.61522727272713 0.0 0.0 51.74001010100996 0.0 0.0 52.86479292929278 0.0 0.0 
53.98957575757561 0.0 0.0 55.11435858585843 0.0 0.0 56.23914141414126 0.0 0.0 
57.36392424242408 0.0 0.0 58.48870707070691 0.0 0.0 59.613489898989734 0.0 0.0 
60.73827272727256 0.0 0.0 61.863055555555384 0.0 0.0 62.98783838383821 0.0 0.0 
64.11262121212104 0.0 0.0 65.23740404040386 0.0 0.0 66.36218686868668 0.0 0.0 
67.48696969696951 0.0 0.0 68.61175252525234 0.0 0.0 69.73653535353516 0.0 0.0 
70.86131818181798 0.0 0.0 71.98610101010081 0.0 0.0 73.11088383838364 0.0 0.0 
74.23566666666646 0.0 0.0 75.36044949494928 0.0 0.0 76.48523232323211 0.0 0.0 
77.61001515151494 0.0 0.0 78.73479797979776 0.0 0.0 79.85958080808058 0.0 0.0 
80.98436363636341 0.0 0.0 82.10914646464624 0.0 0.0 83.23392929292906 0.0 0.0 
84.35871212121188 0.0 0.0 85.48349494949471 0.0 0.0 86.60827777777754 0.0 0.0 
87.73306060606036 0.0 0.0 88.85784343434318 0.0 0.0 89.98262626262601 0.0 0.0 
91.10740909090885 0.0 0.0 92.23219191919166 0.0 0.0 93.35697474747448 0.0 0.0 
94.48175757575731 0.0 0.0 95.60654040404015 0.0 0.0 96.73132323232296 0.0 0.0 
97.85610606060578 0.0 0.0 98.98088888888861 0.0 0.0 100.10567171717145 0.0 0.0 
101.23045454545426 0.0 0.0 102.35523737373708 0.0 0.0 103.48002020201992 0.0 0.0 
104.60480303030275 0.0 0.0 105.72958585858557 0.0 0.0 106.85436868686838 0.0 0.0 
107.97915151515122 0.0 0.0 109.10393434343405 0.0 0.0 110.22871717171687 0.0 0.0 
111.35349999999968 0.0 0.0 0.0 1.061935353535354 0.0 1.1247828282828252 1.061935353535354 0.0 
2.2495656565656503 1.061935353535354 0.0 3.3743484848484755 1.061935353535354 0.0 4.499131313131301 1.061935353535354 0.0 
5.623914141414126 1.061935353535354 0.0 6.748696969696951 1.061935353535354 0.0 7.873479797979776 1.061935353535354 0.0 
8.998262626262601 1.061935353535354 0.0 10.123045454545426 1.061935353535354 0.0 11.247828282828252 1.061935353535354 0.0 
12.372611111111077 1.061935353535354 0.0 13.497393939393902 1.061935353535354 0.0 14.622176767676727 1.061935353535354 0.0 
15.746959595959552 1.061935353535354 0.0 16.871742424242377 1.061935353535354 0.0 17.996525252525203 1.061935353535354 0.0 
19.121308080808028 1.061935353535354 0.0 20.246090909090853 1.061935353535354 0.0 21.370873737373678 1.061935353535354 0.0 
22.495656565656503 1.061935353535354 0.0 23.62043939393933 1.061935353535354 0.0 24.745222222222154 1.061935353535354 0.0 
25.87000505050498 1.061935353535354 0.0 26.994787878787804 1.061935353535354 0.0 28.11957070707063 1.061935353535354 0.0 
29.244353535353454 1.061935353535354 0.0 30.36913636363628 1.061935353535354 0.0 31.493919191919105 1.061935353535354 0.0 
32.61870202020193 1.061935353535354 0.0 33.743484848484755 1.061935353535354 0.0 34.86826767676758 1.061935353535354 0.0 
35.993050505050405 1.061935353535354 0.0 37.11783333333323 1.061935353535354 0.0 38.242616161616056 1.061935353535354 0.0 
39.36739898989888 1.061935353535354 0.0 40.492181818181706 1.061935353535354 0.0 41.61696464646453 1.061935353535354 0.0 
42.741747474747356 1.061935353535354 0.0 43.86653030303018 1.061935353535354 0.0 44.99131313131301 1.061935353535354 0.0 
46.11609595959583 1.061935353535354 0.0 47.24087878787866 1.061935353535354 0.0 48.36566161616148 1.061935353535354 0.0 
49.49044444444431 1.061935353535354 0.0 50.61522727272713 1.061935353535354 0.0 51.74001010100996 1.061935353535354 0.0 
52.86479292929278 1.061935353535354 0.0 53.98957575757561 1.061935353535354 0.0 55.11435858585843 1.061935353535354 0.0 
56.23914141414126 1.061935353535354 0.0 57.36392424242408 1.061935353535354 0.0 58.48870707070691 1.061935353535354 0.0 
59.613489898989734 1.061935353535354 0.0 60.73827272727256 1.061935353535354 0.0 61.863055555555384 1.061935353535354 0.0 
62.98783838383821 1.061935353535354 0.0 64.11262121212104 1.061935353535354 0.0 65.23740404040386 1.061935353535354 0.0 
66.36218686868668 1.061935353535354 0.0 67.48696969696951 1.061935353535354 0.0 68.61175252525234 1.061935353535354 0.0 
69.73653535353516 1.061935353535354 0.0 70.86131818181798 1.061935353535354 0.0 71.98610101010081 1.061935353535354 0.0 
73.11088383838364 1.061935353535354 0.0 74.23566666666646 1.061935353535354 0.0 75.36044949494928 1.061935353535354 0.0 
76.48523232323211 1.061935353535354 0.0 77.61001515151494 1.061935353535354 0.0 78.73479797979776 1.061935353535354 0.0 
79.85958080808058 1.061935353535354 0.0 80.98436363636341 1.061935353535354 0.0 82.10914646464624 1.061935353535354 0.0 
83.23392929292906 1.061935353535354 0.0 84.35871212121188 1.061935353535354 0.0 85.48349494949471 1.061935353535354 0.0 
86.60827777777754 1.061935353535354 0.0 87.73306060606036 1.061935353535354 0.0 88.85784343434318 1.061935353535354 0.0 
89.98262626262601 1.061935353535354 0.0 91.10740909090885 1.061935353535354 0.0 92.23219191919166 1.061935353535354 0.0 
93.35697474747448 1.061935353535354 0.0 94.48175757575731 1.061935353535354 0.0 95.60654040404015 1.061935353535354 0.0 
96.73132323232296 1.061935353535354 0.0 97.85610606060578 1.061935353535354 0.0 98.98088888888861 1.061935353535354 0.0 
100.10567171717145 1.061935353535354 0.0 101.23045454545426 1.061935353535354 0.0 102.35523737373708 1.061935353535354 0.0 
103.48002020201992 1.061935353535354 0.0 104.60480303030275 1.061935353535354 0.0 105.72958585858557 1.061935353535354 0.0 
106.85436868686838 1.061935353535354 0.0 107.97915151515122 1.061935353535354 0.0 109.10393434343405 1.061935353535354 0.0 
110.22871717171687 1.061935353535354 0.0 111.35349999999968 1.061935353535354 0.0 0.0 2.123870707070708 0.0 
1.1247828282828252 2.123870707070708 0.0 2.2495656565656503 2.123870707070708 0.0 3.3743484848484755 2.123870707070708 0.0 
4.499131313131301 2.123870707070708 0.0 5.623914141414126 2.123870707070708 0.0 6.748696969696951 2.123870707070708 0.0 
7.873479797979776 2.123870707070708 0.0 8.998262626262601 2.123870707070708 0.0 10.123045454545426 2.123870707070708 0.0 
11.247828282828252 2.123870707070708 0.0 12.372611111111077 2.123870707070708 0.0 13.497393939393902 2.123870707070708 0.0 
14.622176767676727 2.123870707070708 0.0 15.746959595959552 2.123870707070708 0.0 16.871742424242377 2.123870707070708 0.0 
17.996525252525203 2.123870707070708 0.0 19.121308080808028 2.123870707070708 0.0 20.246090909090853 2.123870707070708 0.0 
21.370873737373678 2.123870707070708 0.0 22.495656565656503 2.123870707070708 0.0 23.62043939393933 2.123870707070708 0.0 
24.745222222222154 2.123870707070708 0.0 25.87000505050498 2.123870707070708 0.0 26.994787878787804 2.123870707070708 0.0 
28.11957070707063 2.123870707070708 0.0 29.244353535353454 2.123870707070708 0.0 30.36913636363628 2.123870707070708 0.0 
31.493919191919105 2.123870707070708 0.0 32.61870202020193 2.123870707070708 0.0 33.743484848484755 2.123870707070708 0.0 
34.86826767676758 2.123870707070708 0.0 35.993050505050405 2.123870707070708 0.0 37.11783333333323 2.123870707070708 0.0 
38.242616161616056 2.123870707070708 0.0 39.36739898989888 2.123870707070708 0.0 40.492181818181706 2.123870707070708 0.0 
41.61696464646453 2.123870707070708 0.0 42.741747474747356 2.123870707070708 0.0 43.86653030303018 2.123870707070708 0.0 
44.99131313131301 2.123870707070708 0.0 46.11609595959583 2.123870707070708 0.0 47.24087878787866 2.123870707070708 0.0 
48.36566161616148 2.123870707070708 0.0 49.49044444444431 2.123870707070708 0.0 50.61522727272713 2.123870707070708 0.0 
51.74001010100996 2.123870707070708 0.0 52.86479292929278 2.123870707070708 0.0 53.98957575757561 2.123870707070708 0.0 
55.11435858585843 2.123870707070708 0.0 56.23914141414126 2.123870707070708 0.0 57.36392424242408 2.123870707070708 0.0 
58.48870707070691 2.123870707070708 0.0 59.613489898989734 2.123870707070708 0.0 60.73827272727256 2.123870707070708 0.0 
61.863055555555384 2.123870707070708 0.0 62.98783838383821 2.123870707070708 0.0 64.11262121212104 2.123870707070708 0.0 
65.23740404040386 2.123870707070708 0.0 66.36218686868668 2.123870707070708 0.0 67.48696969696951 2.123870707070708 0.0 
68.61175252525234 2.123870707070708 0.0 69.73653535353516 2.123870707070708 0.0 70.86131818181798 2.123870707070708 0.0 
71.98610101010081 2.123870707070708 0.0 73.11088383838364 2.123870707070708 0.0 74.23566666666646 2.123870707070708 0.0 
75.36044949494928 2.123870707070708 0.0 76.48523232323211 2.123870707070708 0.0 77.61001515151494 2.123870707070708 0.0 
78.73479797979776 2.123870707070708 0.0 79.85958080808058 2.123870707070708 0.0 80.98436363636341 2.123870707070708 0.0 
82.10914646464624 2.123870707070708 0.0 83.23392929292906 2.123870707070708 0.0 84.35871212121188 2.123870707070708 0.0 
[...]
POINT_DATA 10000
SCALARS correlation_coefficient double
LOOKUP_TABLE default
2.3386880264895234e+19
-1.4466670064597987e+19
-6.7885923639291404e+19
-9.834993889049934e+19
-8.051744189839188e+19
-3.0354122566188163e+19
1.273181512854055e+18
2.021574096269187e+18
4.353587234469676e+18
1.6544193721811288e+19
1.0000205182051283e+19
-2.4386093485842862e+19
-4.809206637445294e+19
-2.881680065141218e+19
1.2023590513344174e+19
4.493787375051667e+19
3.6851422180125467e+19
-3.9110247379213705e+19
-1.3194605112105671e+20
-1.3971791251603743e+20
-4.0135117851968815e+19
4.8568961645430874e+19
1.8514706288592548e+19
-1.0471835917785226e+20
-1.96818365636064e+20
-1.759524036366651e+20
-6.7148315913095406e+19
6.5209391150671e+19
1.6649296032435424e+20
2.053220064525546e+20
1.53654622117274e+20
2.701623056083628e+19
-9.614977653461297e+19
-1.3071486356863802e+20
-6.993147127141187e+19
1.968005907221838e+19
7.381089100075116e+19
8.288266435276526e+19
5.6304908331936735e+19
1.0675078325902746e+19
-3.633519906389014e+19
-4.934440618617924e+19
-9.3698408663757e+18
2.974255481894383e+19
-2.0022530964490852e+18
-9.780886756317445e+19
-1.4727453911116018e+20
-7.3214370966497755e+19
4.35392741906444e+19
8.016663195582892e+19
2.0675725997645074e+19
-5.59358708507665e+19
-7.905506063196538e+19
-3.908904659598427e+19
1.7548299412320326e+19
4.319891524150458e+19
4.102702727241884e+19
1.998034601366944e+19
-1.49991983486819e+19
-3.907136934774258e+19
-4.777717712066333e+18
8.081780808900742e+19
1.5921250496923802e+20
1.635403525503541e+20
7.1552022322743796e+19
-6.3940636147723846e+19
-1.5166086410205843e+20
-1.3652713711556977e+20
-3.648323531290577e+19
9.504677905470358e+19
1.7003949192725027e+20
1.3865373868046847e+20
3.459175010958507e+19
-6.728719844573418e+19
-1.3575271408618802e+20
-1.75364502824241e+20
-1.6945480238195576e+20
-9.341312406784013e+19
1.6436309456214501e+19
8.045494291552535e+19
6.15851786609846e+19
2.668626470803967e+18
-4.652371260195913e+19
-6.027586548082156e+19
-2.635826729776979e+19
2.7177846673398964e+19
5.02049949684215e+19
2.960334260520878e+19
-1.063927311757887e+19
-5.2691384809956295e+19
-6.164409463997004e+19
-2.950822611924166e+19
1.0310948636777622e+19
1.990026853571505e+19
2.2106202376374755e+19
4.840504202723542e+19
6.903336634697222e+19
4.203798543715977e+19
-2.853598379152745e+19
-1.0301390767152759e+20
3.43708322235248e+19
2.11779276132663e+18
-5.6178532138215784e+19
-9.64697924417639e+19
-8.128239462379004e+19
-3.331444540169275e+19
1.9291115579532434e+18
1.539224705014685e+19
2.1903495337237676e+19
2.104094194653661e+19
-3.121482914546032e+18
-3.7942815293119545e+19
-4.7384604314725245e+19
-1.5611416266424214e+19
3.4942874121138872e+19
6.532654082618862e+19
5.118445151844057e+19
-2.6518868426338537e+19
-1.1847541280247679e+20
-1.2118838149050193e+20
-1.875408573193693e+19
6.769727442407477e+19
2.4930390228795937e+19
-9.850393798355732e+19
-1.737357230091929e+20
-1.3776019963844857e+20
-3.640605685930556e+19
6.6432640325693194e+19
1.4517000784867317e+20
1.8212365939366357e+20
1.532886684744381e+20
4.077706342556981e+19
-1.0171113414070331e+20
-1.6346196702053112e+20
-1.0328513090271071e+20
5.748003699404538e+18
7.148208702500864e+19
7.65302019876169e+19
4.411196641943997e+19
-7.518253933870309e+18
-5.895995657698091e+19
-7.370656391840871e+19
-2.8855682093810102e+19
2.0958050281817145e+19
2.0631706283785539e+18
-7.53002419686278e+19
-1.1387001157782253e+20
-4.882383314368829e+19
5.7068635708406964e+19
8.982062136941955e+19
4.311924218203608e+19
-1.7427292130884311e+19
-3.845119137126619e+19
-1.5115762870964513e+19
2.7633203041653166e+19
5.4954464263528006e+19
5.281972301843023e+19
2.5117951408578007e+19
-1.1523397076901722e+19
-2.8748689629501256e+19
7.627309928946754e+18
9.526433869388731e+19
1.732060159049009e+20
1.6821008506978016e+20
5.721164981371829e+19
-8.039004462519724e+19
-1.5620391494893522e+20
-1.3989735688620804e+20
-5.0353018971976565e+19
7.97765536360751e+19
1.7175905390711364e+20
1.5534936042448847e+20
5.2966697500839354e+19
-6.767071125742254e+19
-1.6897314815711078e+20
-2.3132672272736102e+20
-2.177463071356326e+20
-1.2787607023781364e+20
-2.335343238325566e+19
2.7216765854640693e+19
1.2993264087094358e+19
-2.487336885412611e+19
-5.585259210793511e+19
-6.467079417841442e+19
-3.248986116760336e+19
2.8549724463565144e+19
6.521932577525165e+19
4.4029518951843316e+19
-1.4021316264010265e+19
-7.663038862850415e+19
-9.353729684724282e+19
-5.069195742320988e+19
2.385748102458647e+18
1.2115860835472085e+19
8.487814969994171e+16
2.1309330552114532e+19
5.908603694802683e+19
4.665105721311496e+19
-3.4337568094353252e+19
-1.306431418994483e+20
1.6847831072898722e+19
-5.07050488409828e+18
-5.2002403835431944e+19
-8.861619668118692e+19
-7.846393109688392e+19
-3.554138171315585e+19
4.588974629541435e+18
2.9852445654228402e+19
4.150552422180583e+19
2.539136808193371e+19
-1.3807373037762265e+19
-4.207703482710445e+19
-3.3529201018465563e+19
6.054486591279096e+17
4.334143692503212e+19
7.215590124938547e+19
6.46191324330813e+19
-2.4119981413409367e+18
-8.48438375121944e+19
-8.18516390343503e+19
2.063904085525983e+19
1.019852532444634e+20
5.149070187616963e+19
-7.261441690521112e+19
-1.3510586452522276e+20
-8.826518575685973e+19
5.651147880049857e+17
6.367074744630934e+19
1.0679284560416258e+20
1.3945857108637145e+20
1.3326305591722279e+20
3.762760119750464e+19
-1.159085850609328e+20
-1.940270402836733e+20
-1.253133292065242e+20
5.152451866222077e+18
8.000620783110277e+19
8.087609281863347e+19
4.642007877778724e+19
-6.717173019381516e+18
-5.72013112972254e+19
-6.670705785416045e+19
-1.8702758693222388e+19
3.243621874127385e+19
1.8582619133287838e+19
-3.815389667341354e+19
-6.11240758611854e+19
-1.4076174019751186e+19
6.271952893899803e+19
9.381987930340481e+19
6.915432778173614e+19
2.347768433239098e+19
-2.84336262150256e+18
-4.136301498269056e+17
2.6979375271991788e+19
5.747186516265708e+19
6.435996596270642e+19
3.5926385916083163e+19
-9.919505137933722e+18
-3.3252331740404113e+19
3.4093623205049866e+18
9.546770243364631e+19
1.7210677031036417e+20
1.5922074535163763e+20
4.172144841373863e+19
-8.992994556806006e+19
-1.5040968206357044e+20
-1.3353242339910815e+20
-5.250638592638866e+19
7.39280812334279e+19
1.7557382304786622e+20
1.7200703237250525e+20
7.956054228403523e+19
-3.896492536230076e+19
-1.5593659134790015e+20
-2.3729783742769096e+20
-2.283333980746237e+20
-1.380994555048399e+20
-4.367258835780912e+19
-5.568850306645866e+18
-1.327985283451247e+19
-3.4195468826315444e+19
-5.554120618871807e+19
-6.948796470022249e+19
-4.3140816371623985e+19
2.5190983033880072e+19
7.895476247005864e+19
6.241592720197819e+19
-1.3384474417433297e+19
-8.769882694303688e+19
-1.046320907044075e+20
-5.258899272300811e+19
-1.8660229826547528e+18
-6.811923699665156e+17
-1.832044447970854e+19
6.504614803417268e+18
5.880328459197555e+19
5.217027788901039e+19
-4.6651219547895276e+19
-1.6702739260319554e+20
-1.801862811632012e+19
-3.2055673231117623e+19
-5.416604739074584e+19
-7.594403655054957e+19
-7.396181564344009e+19
-4.332118448254673e+19
-5.228618421201282e+18
3.2500696493142135e+19
5.0176829693016105e+19
2.1703301987057435e+19
-3.182531600734459e+19
-5.769058903944238e+19
-3.3481539998190084e+19
4.4755277480860836e+18
3.2092994253382054e+19
5.168692298697226e+19
5.5265417729866334e+19
1.7133747676320645e+19
-4.485761915067538e+19
-4.841704589720152e+19
3.3167228902364512e+19
1.0484068636888015e+20
6.66725251443038e+19
-4.850787282880702e+19
-1.1164336565088428e+20
-6.765320165709774e+19
1.4134206598016078e+19
5.18345045408878e+19
6.237234051048026e+19
9.004112183728906e+19
1.0142670832760634e+20
2.9473987069020266e+19
-1.1422897821975562e+20
-1.9028469554313825e+20
-1.130932020576685e+20
2.539920749482557e+19
9.646018574180481e+19
9.067018148625365e+19
5.902384058783125e+19
1.1871931752299774e+19
-3.563527816006513e+19
-4.716779209617744e+19
-6.979690944098547e+18
3.729931825991978e+19
3.2146766678284018e+19
-8.783301083908795e+18
-2.8630083710957232e+19
-7.577992417928304e+18
3.5978941032195793e+19
7.533668466641335e+19
8.056920135001306e+19
5.135284137786482e+19
1.4098849812648063e+19
-2.807935406560616e+18
1.2754061394272096e+19
4.503152036451691e+19
6.161949077247461e+19
3.591192920552856e+19
-2.0123213654212014e+19
-5.408073860112991e+19
-2.0198873972553437e+19
7.517822508255417e+19
1.5347061722299004e+20
1.3793876412977948e+20
2.9110405309153116e+19
-8.676788133700243e+19
-1.3661419273887144e+20
-1.240325222454016e+20
-5.464191275277848e+19
6.276957543575987e+19
1.6780946038034668e+20
1.8008054353998345e+20
1.0985108343064774e+20
9.202554207931921e+18
-1.0025923862052703e+20
-1.8593076924903784e+20
-1.9151475922285268e+20
-1.170542789809184e+20
-3.6199595489435484e+19
2.6350531182718454e+18
5.111127390924502e+18
-1.2483335876009902e+19
-4.245227788442758e+19
-7.005437470233582e+19
-4.9129180005855805e+19
3.01471173750884e+19
1.0335181102242098e+20
9.850376906147396e+19
2.008679258861782e+19
-5.836425383637947e+19
-7.486419025048191e+19
-2.6356543504095162e+19
1.045947828753484e+19
-1.0166749491542036e+19
-2.9783394984517243e+19
1.516273960581165e+19
8.77645474854581e+19
8.156199968586054e+19
-4.343689223484379e+19
-1.8851959305047612e+20
-4.010078936946942e+19
-4.191699038850106e+19
-4.014483228546624e+19
-4.7974169506461114e+19
-5.4268312761037e+19
-3.88820937637459e+19
-4.4393035811512054e+18
3.6494720827428712e+19
5.3161320095947915e+19
1.7906134176093594e+19
-4.4629667029466235e+19
-7.15676407923478e+19
-4.8880050367065965e+19
-1.452897238591629e+19
4.0200020630579343e+18
1.8335429229941895e+19
3.4915071097494905e+19
2.308190758820769e+19
-1.6581270868340535e+19
-2.960994024816132e+19
1.6246820247494834e+19
6.972962492297668e+19
4.907546648837322e+19
-4.173063244858666e+19
-1.0600758643831254e+20
-7.544897538563894e+19
3.513658716018469e+18
3.593836845593131e+19
3.0204813560643867e+19
4.495058986618631e+19
6.512398478883556e+19
1.7204059192182411e+19
-9.490900747367709e+19
-1.4973930251452996e+20
-7.710394247622299e+19
4.237510950559229e+19
9.505958119894919e+19
8.535375021280054e+19
6.023331559053193e+19
2.1966286377256583e+19
-2.6791551045097943e+19
-5.029707013229685e+19
-2.7892655459413918e+19
1.4414903645366862e+19
3.2936666897452536e+19
1.6555675835834397e+19
-1.0066785105202469e+19
-2.3830024399903486e+19
-9.545272090262585e+18
3.672731631219824e+19
7.616797248669606e+19
6.561255416813534e+19
2.090142650475914e+19
-1.3027658325805179e+19
-7.709476692779289e+18
2.788281569342075e+19
5.1542011624315314e+19
2.6070368496486167e+19
-4.001720356584314e+19
-8.218991792278643e+19
-5.059759482183779e+19
4.363761614224366e+19
1.2164120125839235e+20
1.05457466119578e+20
1.4394675257609902e+19
-8.163770916768183e+19
-1.2478807230042009e+20
-1.1977374392482592e+20
-6.428073853568449e+19
3.758172034976893e+19
1.3704362278982926e+20
1.6908270024687695e+20
1.2775805292059882e+20
4.8087193265225834e+19
-4.973735623551956e+19
-1.3338119002192334e+20
-1.4531027834583127e+20
-8.825274628921927e+19
-1.884086220898209e+19
2.0450400564691505e+19
3.1820494733579624e+19
1.5413993713356e+19
-2.8926436101172994e+19
-7.192345632866308e+19
-6.146778295117161e+19
2.4944288620031033e+19
1.116038542049363e+20
1.2703809040363376e+20
6.9405352966308856e+19
4.879142870474329e+18
-1.6164343482457004e+19
2.7508790781673774e+18
9.253391643577563e+18
-3.0170267315262185e+19
-4.388297459583974e+19
3.0729374133480817e+19
1.2890449621490942e+20
1.2607267730346366e+20
-1.3263379765886882e+19
-1.6930169279441614e+20
-4.8235790133992866e+19
-2.9553151769843667e+19
-6.252518347535618e+18
-5.215311061209551e+18
-1.8072112643619594e+19
-1.457120613071197e+19
1.6652230900894069e+19
5.843525522637339e+19
7.487924475157112e+19
3.921509766128738e+19
-2.6931048526894604e+19
-6.6334354254637605e+19
-6.5740095484149875e+19
-4.938396696363065e+19
-3.4307255910785315e+19
-1.216014612849185e+19
1.7445469370214773e+19
2.409154424923551e+19
-2.5519848204285894e+17
-1.7495882812806742e+19
5.675934162164408e+18
4.14345164348897e+19
2.884711733835026e+19
-3.941017137722439e+19
-9.315478177829141e+19
-6.128342598450504e+19
1.6272470952728992e+19
4.452958493212944e+19
1.5129038973382975e+19
8.838380230969378e+18
3.2451617481537393e+19
1.296519397709986e+19
-6.183765720011792e+19
-9.693025958567207e+19
-4.122471969486251e+19
4.095080094672301e+19
7.305020375649221e+19
6.539990317988937e+19
5.340873800848576e+19
2.323306352658259e+19
-3.031074888202716e+19
-7.014187339118722e+19
-6.762933118316143e+19
-1.943730647997964e+19
3.582236889812261e+19
6.001835828981823e+19
3.0003895226004967e+19
-2.5297685764395295e+19
-5.070173744028578e+19
-5.712885125845618e+18
6.409001803216565e+19
8.02635242228974e+19
3.7685632970315874e+19
-1.0956774660415005e+19
-1.2716454018814532e+19
2.8844481796714615e+19
5.630807862453634e+19
2.155957875283174e+19
-5.715156622063124e+19
-1.004062445706153e+20
-6.354039689421976e+19
2.517577718907321e+19
9.43556863530534e+19
8.034332368683555e+19
4.1552085247580954e+18
-7.242788508492039e+19
-1.0984422280261573e+20
-1.1085969475070149e+20
-7.106144862736216e+19
1.1380268823026598e+19
1.0209287644068528e+20
1.494388203529769e+20
1.3157860411412526e+20
6.08613133087002e+19
-3.781138521845896e+19
-1.2056418777089294e+20
-1.310755514223289e+20
-7.25097689092939e+19
-3.3832566322338826e+18
3.277567853456449e+19
4.002408663424322e+19
1.925019614688336e+19
-3.35713878754388e+19
-8.776347508657208e+19
-8.897089332435658e+19
-1.8054006032502739e+19
6.700415484112523e+19
1.065658915079839e+20
9.329047056146124e+19
6.001211240200393e+19
3.1149042715599446e+19
1.2311052521281862e+19
-1.866767866756429e+19
-6.4759268568826446e+19
-6.529750961433317e+19
3.389607287591362e+19
1.5094844028025196e+20
1.581321692864477e+20
3.1554420913136423e+19
-1.0911927682243358e+20
-5.772951098955294e+19
-2.0177878831157576e+19
2.338926239251207e+19
3.2660086224697184e+19
1.5218070709571975e+19
1.0357953404751522e+19
3.938258401597268e+19
8.857167657059318e+19
1.1964224433383616e+20
9.48650246213503e+19
2.731402375045612e+19
-3.4568198335172383e+19
-6.6415682646068216e+19
-7.799925485321498e+19
-6.885842103458742e+19
-3.647224907883342e+19
7.199313288786649e+18
2.6526580657205592e+19
9.134392502499091e+18
-7.764286786642855e+18
1.1977345299326386e+19
4.599255060845923e+19
3.425508146450931e+19
-2.893555396673501e+19
-6.460900828699327e+19
-1.0783888238954707e+19
7.583123404855612e+19
8.747424021580779e+19
1.7532049958584676e+19
-1.986031688828381e+19
8.65728142356934e+18
2.2820677478161826e+19
-1.7384420421261253e+19
-4.7317073335201866e+19
-2.172621617173503e+19
2.2233730146797363e+19
4.4984118798064075e+19
5.458071326053183e+19
6.356818185600118e+19
3.869679055955526e+19
-2.7354442064593117e+19
-8.816582736609796e+19
-9.996675515400557e+19
-4.491235583431246e+19
4.757659598293497e+19
1.1637137901384253e+20
9.554640810939857e+19
2.9922421956272635e+18
-7.073586344102628e+19
-4.302805159525127e+19
5.145556971068018e+19
9.852411171463142e+19
6.322710661094391e+19
2.3986489108678564e+18
-9.951572633586789e+17
5.407283813163766e+19
8.416150290186784e+19
3.0988950400393523e+19
-6.530332898654541e+19
-1.0690405862211366e+20
-5.091136222759413e+19
3.95773666416427e+19
9.778862217952936e+19
8.428607241778042e+19
1.963285032467984e+19
-4.547824160577323e+19
-8.579322133101697e+19
-9.781650995116116e+19
-7.169576446417115e+19
-3.6564580448880184e+18
8.110290114582363e+19
1.3254865959819834e+20
1.2364834736218563e+20
5.3310223143104635e+19
-5.061858361156838e+19
-1.3930699254754533e+20
-1.4898374839393747e+20
-7.31539474256588e+19
1.205139120622514e+19
4.637613261478759e+19
3.739401939982642e+19
5.514965076621104e+18
-5.2021684125346054e+19
-1.1190141915914194e+20
-1.2902244310076544e+20
-9.190350334309289e+19
-2.337959284044972e+19
4.016636811772662e+19
7.973836947890433e+19
8.266941175838345e+19
5.111139968138109e+19
3.40788595050619e+18
-5.5557782858940965e+19
-1.0015803563165893e+20
-8.514408630072143e+19
2.0326190629442114e+19
1.3973092153613482e+20
1.6192183895084492e+20
7.262002791094507e+19
-3.320629940496966e+19
-7.288914006684672e+19
-2.9610157694097043e+19
2.7987562308411437e+19
4.833105411067398e+19
3.0659652276409106e+19
1.0077813322881022e+19
2.843374870255418e+19
9.336467241274109e+19
1.5513272261983473e+20
1.5887190148685624e+20
9.348682514938506e+19
9.713631150407842e+18
-5.064151090468769e+19
-8.360696576484455e+19
-8.779294965472725e+19
-5.457552241753649e+19
-2.761794771887889e+18
2.821140011432838e+19
1.5284013149426065e+19
-8.482820303314553e+18
7.370989330450582e+18
5.061754367113742e+19
4.903112940846757e+19
-1.0707794705151932e+19
-3.8773965198431e+19
3.801831650772853e+19
1.4229536517173638e+20
1.393697533766599e+20
3.170970236147708e+19
-3.820451635279575e+19
-5.801700708976936e+18
3.8591596309842534e+19
2.4405524684257632e+19
-1.3515906714784639e+19
-2.3175563486001046e+19
-8.244920289123858e+18
1.660354316490958e+19
5.721498300220908e+19
9.401022290188042e+19
8.098402335321465e+19
3.926472373570422e+17
-9.16300881236375e+19
-1.2464181270714796e+20
-6.454122365153739e+19
5.9920273245916316e+19
1.6336986501444688e+20
1.5488971347125325e+20
3.2021856393027756e+19
-8.219451535438009e+19
-7.001586128444779e+19
4.241790087036117e+19
1.117628868350447e+20
7.284657117828796e+19
4.576770757003245e+18
1.5415712845211863e+19
9.104203215342605e+19
1.187741825502447e+20
4.140318638950193e+19
-7.139797324720317e+19
-1.0642738927320413e+20
-2.915798200024497e+19
7.654611273888596e+19
1.3014049762684499e+20
1.1727203445234606e+20
5.904235883516224e+19
-4.4043860599754527e+18
-5.908322775938083e+19
-9.240571687607296e+19
-7.911372647785559e+19
-9.814386599651426e+18
7.786060188700598e+19
1.2638921285157072e+20
1.1051873206652664e+20
3.766125143806933e+19
-6.3866322566010855e+19
-1.4906195558405967e+20
-1.5771137217638338e+20
-6.898204474800841e+19
3.17167585869516e+19
6.706756304991723e+19
4.52758820438916e+19
4.808346123229684e+18
-4.877526149376776e+19
-1.1086490611123112e+20
-1.5061317000599604e+20
-1.5505977957280075e+20
-1.1138611981527895e+20
-2.4499242083535835e+19
6.22793280606928e+19
9.37028703127752e+19
6.126326667429907e+19
-6.997734155199338e+17
-6.902558249407615e+19
-1.1551563803657907e+20
-9.750759822844061e+19
-6.232721556803858e+18
9.709111791652092e+19
1.3476999694654056e+20
9.374753829448126e+19
2.6858622313696895e+19
-7.900473060906618e+19
-4.581404133746685e+19
9.846359153901593e+18
4.205203569893374e+19
2.4588435312498373e+19
-2.1578426904761065e+19
-2.4414991057330745e+19
4.961895394746595e+19
1.4746231109048456e+20
1.8480001065280255e+20
1.2988120841097581e+20
3.8668048954559e+19
-3.291500548734642e+19
-7.0324478437103526e+19
-8.034985439150445e+19
-5.761737016774852e+19
-1.1272959309791195e+19
2.3790775924812222e+19
1.659523079026316e+19
-1.9912759116112343e+19
-2.8149805579446526e+19
1.1651210497857614e+19
3.409492709334151e+19
-3.1112664960565125e+18
-2.699157627677015e+19
4.6919252188307735e+19
1.5244253483832033e+20
1.5119584919466423e+20
3.925559749852126e+19
-3.657987719227663e+19
-3.051485089175796e+18
5.1037318825863635e+19
4.230962349404595e+19
-1.1840994183306586e+19
-5.174304936938995e+19
-5.288565180451527e+19
-1.4371094374683752e+19
5.721077425365756e+19
1.2154331985278158e+20
1.3089990396588414e+20
5.229553647658064e+19
-6.92930944930847e+19
-1.4290329472196077e+20
-9.386467415381292e+19
5.293906328342502e+19
1.8182018163405908e+20
1.750479910284831e+20
3.18199797635425e+19
-9.678047691277627e+19
-7.775576370094329e+19
4.8162824514605375e+19
1.1572365182623749e+20
5.389962476983683e+19
-1.5463340506051416e+19
2.731978275622896e+19
1.2813508744467205e+20
1.3736856395529732e+20
2.57701028671052e+19
-9.193210175397616e+19
-1.0953307493391933e+20
-1.735841337461297e+19
9.987468013962e+19
1.553900770146405e+20
1.4591461047791922e+20
9.46485181193265e+19
2.9368463460313956e+19
-4.3293795018855825e+19
-1.0694994954483802e+20
-1.0420568477130208e+20
-1.8191868776945412e+19
8.33314400240774e+19
1.2890725006211524e+20
9.730143996527896e+19