# vtk DataFile Version 3.0
 Correlation data from SS Pipeline (Liam Myhill)
ASCII
DATASET STRUCTURED_GRID
DIMENSIONS 100 100 1
POINTS 10000 double
0.0 0.0 0.0 1.1247828282828252 0.0 0.0 2.2495656565656503 0.0 0.0 
3.3743484848484755 0.0 0.0 4.499131313131301 0.0 0.0 5.623914141414126 0.0 0.0 
6.748696969696951 0.0 0.0 7.873479797979776 0.0 0.0 8.998262626262601 0.0 0.0 
10.123045454545426 0.0 0.0 11.247828282828252 0.0 0.0 12.372611111111077 0.0 0.0 
13.497393939393902 0.0 0.0 14.622176767676727 0.0 0.0 15.746959595959552 0.0 0.0 
16.871742424242377 0.0 0.0 17.996525252525203 0.0 0.0 19.121308080808028 0.0 0.0 
20.246090909090853 0.0 0.0 21.370873737373678 0.0 0.0 22.495656565656503 0.0 0.0 
23.62043939393933 0.0 0.0 24.745222222222154 0.0 0.0 25.87000505050498 0.0 0.0 
26.994787878787804 0.0 0.0 28.11957070707063 0.0 0.0 29.244353535353454 0.0 0.0 
30.36913636363628 0.0 0.0 31.493919191919105 0.0 0.0 32.61870202020193 0.0 0.0 
33.743484848484755 0.0 0.0 34.86826767676758 0.0 0.0 35.993050505050405 0.0 0.0 
37.11783333333323 0.0 0.0 38.242616161616056 0.0 0.0 39.36739898989888 0.0 0.0 
40.492181818181706 0.0 0.0 41.61696464646453 0.0 0.0 42.741747474747356 0.0 0.0 
43.86653030303018 0.0 0.0 44.99131313131301 0.0 0.0 46.11609595959583 0.0 0.0 
47.24087878787866 0.0 0.0 48.36566161616148 0.0 0.0 49.49044444444431 0.0 0.0 
50.61522727272713 0.0 0.0 51.74001010100996 0.0 0.0 52.86479292929278 0.0 0.0 
53.98957575757561 0.0 0.0 55.11435858585843 0.0 0.0 56.23914141414126 0.0 0.0 
57.36392424242408 0.0 0.0 58.48870707070691 0.0 0.0 59.613489898989734 0.0 0.0 
60.73827272727256 0.0 0.0 61.863055555555384 0.0 0.0 62.98783838383821 0.0 0.0 
64.11262121212104 0.0 0.0 65.23740404040386 0.0 0.0 66.36218686868668 0.0 0.0 
67.48696969696951 0.0 0.0 68.61175252525234 0.0 0.0 69.73653535353516 0.0 0.0 
70.86131818181798 0.0 0.0 71.98610101010081 0.0 0.0 73.11088383838364 0.0 0.0 
74.23566666666646 0.0 0.0 75.36044949494928 0.0 0.0 76.48523232323211 0.0 0.0 
77.61001515151494 0.0 0.0 78.73479797979776 0.0 0.0 79.85958080808058 0.0 0.0 
80.98436363636341 0.0 0.0 82.10914646464624 0.0 0.0 83.23392929292906 0.0 0.0 
84.35871212121188 0.0 0.0 85.48349494949471 0.0 0.0 86.60827777777754 0.0 0.0 
87.73306060606036 0.0 0.0 88.85784343434318 0.0 0.0 89.98262626262601 0.0 0.0 
91.10740909090885 0.0 0.0 92.23219191919166 0.0 0.0 93.35697474747448 0.0 0.0 
94.48175757575731 0.0 0.0 95.60654040404015 0.0 0.0 96.73132323232296 0.0 0.0 
97.85610606060578 0.0 0.0 98.98088888888861 0.0 0.0 100.10567171717145 0.0 0.0 
101.23045454545426 0.0 0.0 102.35523737373708 0.0 0.0 103.48002020201992 0.0 0.0 
104.60480303030275 0.0 0.0 105.72958585858557 0.0 0.0 106.85436868686838 0.0 0.0 
107.97915151515122 0.0 0.0 109.10393434343405 0.0 0.0 110.22871717171687 0.0 0.0 
111.35349999999968 0.0 0.0 0.0 1.061935353535354 0.0 1.1247828282828252 1.061935353535354 0.0 
2.2495656565656503 1.061935353535354 0.0 3.3743484848484755 1.061935353535354 0.0 4.499131313131301 1.061935353535354 0.0 
5.623914141414126 1.061935353535354 0.0 6.748696969696951 1.061935353535354 0.0 7.873479797979776 1.061935353535354 0.0 
8.998262626262601 1.061935353535354 0.0 10.123045454545426 1.061935353535354 0.0 11.247828282828252 1.061935353535354 0.0 
12.372611111111077 1.061935353535354 0.0 13.497393939393902 1.061935353535354 0.0 14.622176767676727 1.061935353535354 0.0 
15.746959595959552 1.061935353535354 0.0 16.871742424242377 1.061935353535354 0.0 17.996525252525203 1.061935353535354 0.0 
19.121308080808028 1.061935353535354 0.0 20.246090909090853 1.061935353535354 0.0 21.370873737373678 1.061935353535354 0.0 
22.495656565656503 1.061935353535354 0.0 23.62043939393933 1.061935353535354 0.0 24.745222222222154 1.061935353535354 0.0 
25.87000505050498 1.061935353535354 0.0 26.994787878787804 1.061935353535354 0.0 28.11957070707063 1.061935353535354 0.0 
29.244353535353454 1.061935353535354 0.0 30.36913636363628 1.061935353535354 0.0 31.493919191919105 1.061935353535354 0.0 
32.61870202020193 1.061935353535354 0.0 33.743484848484755 1.061935353535354 0.0 34.86826767676758 1.061935353535354 0.0 
35.993050505050405 1.061935353535354 0.0 37.11783333333323 1.061935353535354 0.0 38.242616161616056 1.061935353535354 0.0 
39.36739898989888 1.061935353535354 0.0 40.492181818181706 1.061935353535354 0.0 41.61696464646453 1.061935353535354 0.0 
42.741747474747356 1.061935353535354 0.0 43.86653030303018 1.061935353535354 0.0 44.99131313131301 1.061935353535354 0.0 
46.11609595959583 1.061935353535354 0.0 47.24087878787866 1.061935353535354 0.0 48.36566161616148 1.061935353535354 0.0 
49.49044444444431 1.061935353535354 0.0 50.61522727272713 1.061935353535354 0.0 51.74001010100996 1.061935353535354 0.0 
52.86479292929278 1.061935353535354 0.0 53.98957575757561 1.061935353535354 0.0 55.11435858585843 1.061935353535354 0.0 
56.23914141414126 1.061935353535354 0.0 57.36392424242408 1.061935353535354 0.0 58.48870707070691 1.061935353535354 0.0 
59.613489898989734 1.061935353535354 0.0 60.73827272727256 1.061935353535354 0.0 61.863055555555384 1.061935353535354 0.0 
62.98783838383821 1.061935353535354 0.0 64.11262121212104 1.061935353535354 0.0 65.23740404040386 1.061935353535354 0.0 
66.36218686868668 1.061935353535354 0.0 67.48696969696951 1.061935353535354 0.0 68.61175252525234 1.061935353535354 0.0 
69.73653535353516 1.061935353535354 0.0 70.86131818181798 1.061935353535354 0.0 71.98610101010081 1.061935353535354 0.0 
73.11088383838364 1.061935353535354 0.0 74.23566666666646 1.061935353535354 0.0 75.36044949494928 1.061935353535354 0.0 
76.48523232323211 1.061935353535354 0.0 77.61001515151494 1.061935353535354 0.0 78.73479797979776 1.061935353535354 0.0 
79.85958080808058 1.061935353535354 0.0 80.98436363636341 1.061935353535354 0.0 82.10914646464624 1.061935353535354 0.0 
83.23392929292906 1.061935353535354 0.0 84.35871212121188 1.061935353535354 0.0 85.48349494949471 1.061935353535354 0.0 
86.60827777777754 1.061935353535354 0.0 87.73306060606036 1.061935353535354 0.0 88.85784343434318 1.061935353535354 0.0 
89.98262626262601 1.061935353535354 0.0 91.10740909090885 1.061935353535354 0.0 92.23219191919166 1.061935353535354 0.0 
93.35697474747448 1.061935353535354 0.0 94.48175757575731 1.061935353535354 0.0 95.60654040404015 1.061935353535354 0.0 
96.73132323232296 1.061935353535354 0.0 97.85610606060578 1.061935353535354 0.0 98.98088888888861 1.061935353535354 0.0 
100.10567171717145 1.061935353535354 0.0 101.23045454545426 1.061935353535354 0.0 102.35523737373708 1.061935353535354 0.0 
103.48002020201992 1.061935353535354 0.0 104.60480303030275 1.061935353535354 0.0 105.72958585858557 1.061935353535354 0.0 
106.85436868686838 1.061935353535354 0.0 107.97915151515122 1.061935353535354 0.0 109.10393434343405 1.061935353535354 0.0 
110.22871717171687 1.061935353535354 0.0 111.35349999999968 1.061935353535354 0.0 0.0 2.123870707070708 0.0 
1.1247828282828252 2.123870707070708 0.0 2.2495656565656503 2.123870707070708 0.0 3.3743484848484755 2.123870707070708 0.0 
4.499131313131301 2.123870707070708 0.0 5.623914141414126 2.123870707070708 0.0 6.748696969696951 2.123870707070708 0.0 
7.873479797979776 2.123870707070708 0.0 8.998262626262601 2.123870707070708 0.0 10.123045454545426 2.123870707070708 0.0 
11.247828282828252 2.123870707070708 0.0 12.372611111111077 2.123870707070708 0.0 13.497393939393902 2.123870707070708 0.0 
14.622176767676727 2.123870707070708 0.0 15.746959595959552 2.123870707070708 0.0 16.871742424242377 2.123870707070708 0.0 
17.996525252525203 2.123870707070708 0.0 19.121308080808028 2.123870707070708 0.0 20.246090909090853 2.123870707070708 0.0 
21.370873737373678 2.123870707070708 0.0 22.495656565656503 2.123870707070708 0.0 23.62043939393933 2.123870707070708 0.0 
24.745222222222154 2.123870707070708 0.0 25.87000505050498 2.123870707070708 0.0 26.994787878787804 2.123870707070708 0.0 
28.11957070707063 2.123870707070708 0.0 29.244353535353454 2.123870707070708 0.0 30.36913636363628 2.123870707070708 0.0 
31.493919191919105 2.123870707070708 0.0 32.61870202020193 2.123870707070708 0.0 33.743484848484755 2.123870707070708 0.0 
34.86826767676758 2.123870707070708 0.0 35.993050505050405 2.123870707070708 0.0 37.11783333333323 2.123870707070708 0.0 
38.242616161616056 2.123870707070708 0.0 39.36739898989888 2.123870707070708 0.0 40.492181818181706 2.123870707070708 0.0 
41.61696464646453 2.123870707070708 0.0 42.741747474747356 2.123870707070708 0.0 43.86653030303018 2.123870707070708 0.0 
44.99131313131301 2.123870707070708 0.0 46.11609595959583 2.123870707070708 0.0 47.24087878787866 2.123870707070708 0.0 
48.36566161616148 2.123870707070708 0.0 49.49044444444431 2.123870707070708 0.0 50.61522727272713 2.123870707070708 0.0 
51.74001010100996 2.123870707070708 0.0 52.86479292929278 2.123870707070708 0.0 53.98957575757561 2.123870707070708 0.0 
55.11435858585843 2.123870707070708 0.0 56.23914141414126 2.123870707070708 0.0 57.36392424242408 2.123870707070708 0.0 
58.48870707070691 2.123870707070708 0.0 59.613489898989734 2.123870707070708 0.0 60.73827272727256 2.123870707070708 0.0 
61.863055555555384 2.123870707070708 0.0 62.98783838383821 2.123870707070708 0.0 64.11262121212104 2.123870707070708 0.0 
65.23740404040386 2.123870707070708 0.0 66.36218686868668 2.123870707070708 0.0 67.48696969696951 2.123870707070708 0.0 
68.61175252525234 2.123870707070708 0.0 69.73653535353516 2.123870707070708 0.0 70.86131818181798 2.123870707070708 0.0 
71.98610101010081 2.123870707070708 0.0 73.11088383838364 2.123870707070708 0.0 74.23566666666646 2.123870707070708 0.0 
75.36044949494928 2.123870707070708 0.0 76.48523232323211 2.123870707070708 0.0 77.61001515151494 2.123870707070708 0.0 
78.73479797979776 2.123870707070708 0.0 79.85958080808058 2.123870707070708 0.0 80.98436363636341 2.123870707070708 0.0 
82.10914646464624 2.123870707070708 0.0 83.23392929292906 2.123870707070708 0.0 84.35871212121188 2.123870707070708 0.0 
[...]
POINT_DATA 10000
SCALARS correlation_coefficient double
LOOKUP_TABLE default
4.539026000578613e+19
1.935837810060753e+19
-8.223081427370479e+18
-2.7913719891000263e+19
-5.247239679412212e+19
-6.933107204258685e+19
-5.837938803251802e+19
-3.2778374635141276e+19
-1.5185176726056219e+19
-5.225115260709891e+18
2.8818269437777925e+18
5.874517478705966e+18
7.305622068095892e+18
6.257236744831199e+18
9.831536013265787e+18
2.53452176617492e+19
3.704128599878541e+19
2.284122238056475e+19
-1.1725544305598384e+19
-3.2876205836448084e+19
-2.235118985948286e+19
-7.62763239459374e+18
-2.2520445615962923e+19
-6.467954227307291e+19
-9.549514233629362e+19
-9.387432190426828e+19
-7.3315224279453024e+19
-4.4924414544142705e+19
-2.3886884339014197e+19
-1.8299544405644042e+19
-1.4269494211948493e+19
-5.15273381437837e+18
2.0166218755765504e+18
6.637357750829471e+18
1.1587196755386268e+19
1.828886379131433e+19
2.9544947055830917e+19
3.077051818619039e+19
9.776900645459503e+18
-2.4053388661833925e+19
-6.522409886511358e+19
-9.009394277585728e+19
-8.329619306885071e+19
-7.002177751269798e+19
-6.691457445661725e+19
-7.4954989773729e+19
-8.759322892387256e+19
-8.486876427339502e+19
-6.738121603961627e+19
-5.694821306287452e+19
-5.253048926364755e+19
-3.2255892808344895e+19
-2.0066641502215373e+19
-1.6990534978649194e+19
-6.570594779547122e+18
-5.015315624697278e+18
-1.2677192218135192e+19
-1.2879674264170703e+19
-1.0586757860879514e+19
3.057545578307391e+18
4.245140125275074e+19
7.297626334216604e+19
7.906307870437618e+19
8.111052570039262e+19
5.963362043122379e+19
1.7477954193346544e+19
3.3844393813752064e+17
1.8548505996619854e+19
3.808216971261769e+19
4.486115211896656e+19
3.6517335757074584e+19
9.694040092075764e+18
-2.520661532147546e+19
-5.435795908930184e+19
-6.913216333566422e+19
-7.097499465824471e+19
-5.805522071619873e+19
-2.040892715671521e+19
2.8992944812917297e+19
6.188173824707593e+19
7.464583451840823e+19
7.153066666702601e+19
4.654107417571569e+19
1.615592680520018e+19
-1.0786394372073748e+18
-1.7088963160541872e+19
-3.725941675805986e+19
-3.875548933286043e+19
-2.559245616247057e+19
-1.4876855378815721e+19
4984770385593100.0
2.1780633428199342e+19
3.372138770525204e+19
2.885050842481047e+19
2.524836584425453e+19
2.7722461435313713e+19
3.627353168055379e+19
4.351154653582212e+19
4.475829872299639e+19
4.0458466964179706e+19
2.6705456887127233e+19
8.508574729388634e+18
-1.9763653841372127e+19
-4.499130870872848e+19
-7.142781477086603e+19
-9.553777091028091e+19
-9.636513704043744e+19
-7.946194524426066e+19
-6.199274216766805e+19
-4.655872505495493e+19
-2.2883155213025444e+19
-1.6196460270888676e+18
1.1655450740973162e+19
1.846823417831959e+19
2.8413756114575843e+19
4.71954960909034e+19
5.650964674931132e+19
3.683530075010843e+19
3.563899922796076e+18
-1.0970338977880107e+19
3.7538430392331643e+18
2.1616751072170414e+19
8.974876528151289e+18
-3.180271698223807e+19
-5.933669638695763e+19
-5.4315457602329354e+19
-4.014323347096552e+19
-2.7412068873701446e+19
-1.686897779832401e+19
-1.6884706162200175e+19
-1.7485687033324796e+19
-1.0308904470310703e+19
-4.006361681077968e+18
-8.532240557744019e+17
4.81423906337006e+18
1.3682184101648419e+19
2.9664600493115343e+19
3.884303882087521e+19
2.8085436527510987e+19
6.541377498113182e+18
-1.9583851026088317e+19
-3.5591484025031647e+19
-2.04125526801632e+19
-6.241690543658515e+18
-1.4775571301302792e+19
-3.5647188172618932e+19
-6.1920719607705125e+19
-7.791164563805356e+19
-7.05536805955453e+19
-6.454899093948368e+19
-6.596806899524576e+19
-4.797935643628369e+19
-2.792275318244693e+19
-1.6797809062532844e+19
4.5231886170220273e+18
2.008824710307823e+19
9.686278935832674e+18
-4.617134562896899e+18
-1.3279450291831187e+19
-1.2854937737251109e+19
1.5246787275777386e+19
5.129955436786221e+19
6.4560500523971854e+19
7.287860262278066e+19
6.07489514916406e+19
2.146638598339873e+19
-6.479086109858882e+18
-2.3287228105395077e+18
9.848629555100019e+18
1.4217266306085958e+19
1.0672627277006682e+19
-7.432205604531783e+18
-3.6509752929019044e+19
-7.321065731488409e+19
-1.0845713852893692e+20
-1.3078725410037472e+20
-1.3045315807886662e+20
-1.0334396440030986e+20
-5.469771236128287e+19
-1.1733603047051934e+19
1.8875526864441086e+19
4.22054484980942e+19
5.0883220510930625e+19
4.599410824945999e+19
4.206362148795792e+19
3.0390125489281933e+19
9.715981867698157e+17
-2.2042292656366748e+19
-2.6368601418949833e+19
-2.8703190299634086e+19
-2.4152906932529234e+19
-1.0855518192091027e+19
1.8079279844370662e+18
2.5433749298920187e+18
2.7439406372429507e+18
1.0991283033248236e+19
2.9859101654048133e+19
4.87146665821539e+19
5.778889558131392e+19
5.9746481774660665e+19
2.7586698328243773e+18
-3.976152148862309e+18
-2.4790461827514905e+19
-4.55760965721937e+19
-6.403466833503447e+19
-8.320832352229555e+19
-9.098539986544542e+19
-8.369859764000735e+19
-7.043018243859086e+19
-5.540926422925878e+19
-2.9875182751583437e+19
-3.1693683334560507e+18
1.2910635224794337e+19
2.0408628467594867e+19
2.9668664916127527e+19
4.676995031076689e+19
5.2685176139579875e+19
2.9003236818154283e+19
-1.5385810502615124e+18
-3.5061340420474527e+18
2.1741014809170174e+19
4.433820089750537e+19
3.984252743063798e+19
9.724606879353502e+18
-7.450296382725989e+18
4.133308251632581e+18
1.6845546211208315e+19
1.3629412371512115e+19
9.861238797307638e+18
2.130399493158774e+18
-7.864813447001937e+18
-9.248048392796086e+18
-8.199601996838392e+18
-1.0042916618754017e+19
-5.981530585316605e+18
4.513391847755892e+18
2.2403391012791865e+19
4.011023154892912e+19
4.219551197607846e+19
3.118909448165258e+19
2.2190445679083344e+19
2.1645627408200397e+19
4.376280013490953e+19
6.204608040044819e+19
4.2998965841959576e+19
9.208593577295067e+18
-2.2321498917393793e+19
-4.6086178004710285e+19
-5.059435709065551e+19
-4.476904607039555e+19
-4.677833413901606e+19
-4.26846825430296e+19
-2.875382175254602e+19
-1.5181904420623053e+19
1.0580327204807905e+19
3.983520098761561e+19
3.4479413314853085e+19
5.68558143870464e+18
-2.3012593618127053e+19
-4.696501203616043e+19
-5.132183111187993e+19
-3.3764743063703577e+19
-2.4598282686890873e+19
-1.8045657339973087e+19
-1.6990092436482605e+19
-3.3388348865504444e+19
-4.7173164207292326e+19
-4.035639744762628e+19
-2.8822707209012572e+19
-2.4048958578675745e+19
-1.9588948315031495e+19
-1.9311897998026342e+19
-2.636443328966983e+19
-4.801164228799741e+19
-8.387993325741805e+19
-1.165944998003238e+20
-1.3222818625439375e+20
-1.2680286225120177e+20
-1.0169448174211564e+20
-7.05084848360762e+19
-4.288012136563142e+19
-1.1673975367609797e+19
2.1193857069803737e+19
4.699773071688033e+19
6.437774803435908e+19
7.059115500535241e+19
4.723059838412912e+19
1.2222225699211887e+19
-1.0845387158992288e+19
-2.3112007167077417e+19
-2.4425024645855896e+19
-1.5024435354770358e+19
-1.4066610093931576e+18
3.311840692765072e+18
1.2682174932322895e+18
4.9984250378022285e+17
9.374234847785896e+18
2.143991618500938e+19
2.577575433340724e+19
2.5628131477140144e+19
-1.802799309345716e+19
-1.966540255267963e+19
-3.220197679835545e+19
-4.334301666984654e+19
-4.674697518250458e+19
-5.1399142216454e+19
-5.78027549480238e+19
-6.098213706260045e+19
-5.715001992149542e+19
-5.1818294740429955e+19
-3.91499551456428e+19
-2.5050667029020635e+19
-1.7277422783857732e+19
-1.2117504864488686e+19
-1.4677872661267848e+18
1.5301073371253424e+19
2.434354827996882e+19
5.605491837910505e+18
-2.242098958436184e+19
-1.7578845333698111e+19
9.700712714178118e+18
2.7835754673885676e+19
2.514816327832942e+19
6.419222190835173e+18
-3.876957824060073e+18
1.306933064458494e+19
2.9346163933721375e+19
2.331906081810924e+19
1.4752246749420073e+19
1.1173699319049804e+19
2.0709514098101796e+18
-3.264573038841149e+18
-8.844908697890483e+18
-1.5884106384610122e+19
-1.7726678786935261e+19
-1.0013105285137189e+19
4.879319437134973e+18
2.210549044228245e+19
2.724226575433044e+19
1.997205080295198e+19
1.7910052354207562e+19
2.517944438059883e+19
4.694897406937508e+19
6.387836863929867e+19
4.173758158111214e+19
6.657288234911348e+18
-1.2921783735030528e+19
-2.796456560031449e+19
-3.3110994838820893e+19
-2.226357390617125e+19
-1.8475393263849054e+19
-3.021600224014495e+19
-3.3743993039907443e+19
-3.2916310064162333e+19
-1.8728955311157957e+19
1.3653908455697949e+19
2.214482011716406e+19
-5.052842471465791e+18
-3.983096212363263e+19
-7.60439907382424e+19
-1.0420364334616982e+20
-1.0701694336158474e+20
-1.0353352858660028e+20
-1.0036372921033662e+20
-9.088920688895687e+19
-8.76458290616158e+19
-8.500151845319818e+19
-7.235069117156592e+19
-6.178486769162504e+19
-5.880211828126244e+19
-4.8957305746705965e+19
-3.0771157568384893e+19
-1.1961936065577144e+19
-3.5443204282313103e+18
-1.7202049089359927e+19
-3.9318010787283804e+19
-5.7039776588089836e+19
-6.798253373906765e+19
-7.044003544081437e+19
-6.3721903764896195e+19
-5.555238762586228e+19
-4.011509984063037e+19
-9.36698453283709e+18
2.5709865041271943e+19
5.704132984562366e+19
7.92996390202034e+19
7.59670916919118e+19
4.92865780424659e+19
2.325273488136049e+19
6.022338190353995e+18
7.646311842295145e+17
6.212251219943314e+18
1.6784668001297963e+19
2.0379013365416743e+19
1.2604877126835388e+19
-2.5959249342464256e+18
-1.4794759108945183e+19
-2.3918252773179298e+19
-3.714746104831287e+19
-4.697773772993545e+19
-1.5255642527651375e+19
-1.8902633732346884e+19
-2.9175944886234358e+19
-3.4881807834400068e+19
-3.006248562064836e+19
-2.8451550273885983e+19
-3.6327696788302787e+19
-4.879952562240389e+19
-5.681985101122907e+19
-6.320380217501923e+19
-6.6356382096468115e+19
-7.0272238587567645e+19
-7.235673368617499e+19
-6.552194984046246e+19
-4.699683127684181e+19
-2.4607711190615044e+19
-6.634748971995929e+18
-9.626586033131293e+18
-2.7291354604578587e+19
-2.6269281089394725e+19
-1.0006847734742102e+19
-9.636048069401815e+18
-2.356302968261127e+19
-4.164706580721039e+19
-4.968781106218298e+19
-3.4626268977451057e+19
-1.1103601714844099e+19
-9.60207000221288e+18
-1.1265954271901774e+19
-1.9080146787343634e+18
3.6589147108552586e+18
-2.1028583444443546e+17
-7.218394714792452e+18
-1.875409212094773e+19
-2.6647960663437103e+19
-2.508894456552196e+19
-1.6446431395072629e+19
-1.0989363581220098e+19
-1.7543950783405128e+19
-3.3726423420343714e+19
-3.751226291560814e+19
-2.4251571104662757e+19
-3.14611757437382e+18
1.2986247391204327e+19
2.1507643285393837e+17
-2.1322539777174725e+19
-2.123501738571035e+19
-2.160279470764502e+19
-2.927530883420717e+19
-2.058943033424902e+19
-1.0111275969282822e+19
-2.8633378017040724e+19
-5.007807553279123e+19
-6.534918094902009e+19
-7.016282718150395e+19
-4.738249606232299e+19
-2.1549018650985255e+19
-2.6757797122858332e+19
-4.93098959462666e+19
-7.42839001285752e+19
-1.0197829009964666e+20
-1.1326525508188732e+20
-1.1369961933664602e+20
-1.116981330770701e+20
-1.0189832173535979e+20
-9.02295307412418e+19
-8.154290435565668e+19
-7.0320586375296205e+19
-6.530885562991648e+19
-6.6608102649763504e+19
-5.738483951285173e+19
-3.492424340720753e+19
-7.359653550461961e+18
1.6920559779773184e+19
2.779453126499e+19
2.4891380459976716e+19
2.2125752710884184e+19
1.3201305010839034e+19
6.572079615622957e+17
-8.524725281162349e+18
-1.8010450716183794e+19
-2.5218696262864806e+19
-1.6456784465976273e+19
8.136394905043106e+18
3.4987358911210205e+19
6.0538261583188386e+19
7.275927370278852e+19
6.427984155851372e+19
4.414889676617071e+19
2.4614593003252638e+19
1.1373417325892694e+19
8.897579773123005e+18
1.5212703860027992e+19
1.9295292463635247e+19
1.65806566334923e+19
4.734345426954799e+18
-1.3909899270416839e+19
-3.901560425167451e+19
-7.127490861363924e+19
-9.761060471199836e+19
1.4583973173827975e+19
1.0152905699104188e+19
6.2917547278795336e+16
-5.171762266978507e+18
-2.2121265813810506e+18
-2.1835599440701647e+18
-1.3925188142767135e+19
-3.225493504152225e+19
-4.689507460209226e+19
-6.094787387332492e+19
-7.751519869667533e+19
-9.544072138868205e+19
-1.0714600169763927e+20
-1.0011969545274874e+20
-7.513627213862032e+19
-4.748511507153228e+19
-2.4771799942670758e+19
-1.004593885465289e+19
-1.0317132038662121e+19
-8.051407471092764e+18
-9.058670090099753e+17
-1.346753227214228e+19
-4.002259968787283e+19
-5.858686170916779e+19
-6.635227233454188e+19
-5.388831175200294e+19
-2.9683567024865444e+19
-2.3054121265653342e+19
-2.603033584716618e+19
-1.1020504032959093e+19
5.98436420781222e+18
7.597780914405359e+18
1.037754853749226e+18
-7.744267645503913e+18
-1.761338888637435e+19
-2.072206289912771e+19
-2.0140230628440797e+19
-2.7915164008314143e+19
-5.176082622828489e+19
-8.279787083214009e+19
-9.15293997123775e+19
-7.2028704986494706e+19
-4.421869381068974e+19
-2.1753542054466626e+19
-1.8026704198051293e+19
-2.2169063005030916e+19
-1.1958724895604976e+19
-1.0115276309689168e+19
-3.18718742099997e+19
-3.499255833121474e+19
-1.8270009668086993e+19
-2.5393073328643682e+19
-4.939498405127812e+19
-7.0203419416693236e+19
-8.903877823060848e+19
-8.209019973482286e+19
-5.271349117755189e+19
-4.1598248646372475e+19
-5.294026700360596e+19
-6.047118245445708e+19
-6.840136973472887e+19
-7.561100961501364e+19
-7.780142091014496e+19
-7.723309606997805e+19
-7.085023893479492e+19
-5.856685074920462e+19
-4.799770492734561e+19
-4.020246506825769e+19
-3.883839999541425e+19
-4.149884975089395e+19
-3.523581718247032e+19
-1.750816149181689e+19
-1.778183327009801e+18
1.4234894006350787e+19
2.80174288947678e+19
3.6775955517919535e+19
4.8297315515794104e+19
5.43953887256493e+19
4.703624090621643e+19
3.6056348640638464e+19
1.883737442031562e+19
-3.1693741712033505e+18
-1.6346681785307234e+19
-1.077313163085405e+19
2.783433297225804e+18
1.782789416317618e+19
3.108418311355777e+19
3.4341595512768475e+19
2.448389373114832e+19
7.697222745228491e+18
-9.95511193109694e+18
-1.937124250797408e+19
-1.440041215600286e+19
-3.8512506876348406e+18
1.1055005359468632e+19
2.453444616155454e+19
2.467961047977349e+19
2.461163012496971e+18
-3.748236930635555e+19
-7.832383123351622e+19
4.553944669895982e+19
4.575869700020231e+19
3.967391842275341e+19
3.6340238717689573e+19
3.844984290823654e+19
3.812824390153157e+19
2.7500089883244802e+19
1.3387022050839204e+19
1.8473401117133343e+18
-1.2928789978319995e+19
-3.725160990027664e+19
-6.754738683232824e+19
-9.177228141476633e+19
-9.648115131476977e+19
-7.760970489928303e+19
-5.543901223444733e+19
-3.865201119381647e+19
-1.8162874291953502e+19
-8.115993711700667e+17
1.1801223769289986e+19
2.393650678804787e+19
1.973428372932462e+19
-1.414070749365476e+18
-1.49216106395689e+19
-1.7017117144087724e+19
-4.989736755562317e+18
1.2656303653597475e+19
1.1423111859885875e+19
-6.406203730999609e+18
-3.393880339469789e+18
1.5368206788500128e+19
2.3164723765164397e+19
2.3450410680841957e+19
2.507434604433565e+19
2.170881457668234e+19
1.7811094927663675e+19
1.3385975976953364e+19
-3.199963687331216e+18
-3.900018013490198e+19
-8.28665919243365e+19
-1.0075404567390732e+20
-8.43907541913995e+19
-5.562004384992089e+19
-2.8403957979705315e+19
-9.572460207198933e+18
-7.526875777902455e+17
6.491611228060598e+18
-2.448229356454819e+18
-4.093247470319096e+19
-5.755003297734241e+19
-2.9176945472487248e+19
-9.089352967086298e+18
-2.1499278182957244e+19
-4.141698009238635e+19
-6.051273827348539e+19
-6.7454555425257914e+19
-5.445696492970872e+19
-4.811403488530081e+19
-6.104032563636623e+19
-6.1988501685320974e+19
-4.442256526599845e+19
-3.591663985222119e+19
-3.5399767264580895e+19
-3.727079576572895e+19
-3.566363399399927e+19
-2.7773572926516965e+19
-1.818820815565435e+19
-1.4035782596344963e+19
-1.0820402401447664e+19
-7.667956759361791e+18
2.353655462374049e+18
1.4984239834917251e+19
1.5014068082419612e+19
6.98970754717611e+18
6.965114702587348e+18
1.1385986058925255e+19
2.470883831821012e+19
4.102752044704933e+19
4.372267569450112e+19
3.4876864842555613e+19
1.6473270716711234e+19
-9.848563636574527e+18
-3.499060432446669e+19
-4.506071393313384e+19
-4.39652125218745e+19
-4.039306981900166e+19
-3.448723317833235e+19
-2.5642105903141528e+19
-2.286911127018818e+19
-2.9011620438366212e+19
-4.249261557910427e+19
-5.227213245463434e+19
-4.806443397016717e+19
-3.0901968465920942e+19
-7.660061829906377e+17
4.143640544623309e+19
7.145060930450637e+19
6.977021675353962e+19
3.815137217290313e+19
-2.1830781720468918e+18
4.76708580491382e+19
5.2528441905315406e+19
5.563465524390525e+19
5.922576838007244e+19
6.433517815895822e+19
6.805394488029348e+19
6.741071154168465e+19
6.7952859374821925e+19
6.919348706584495e+19
6.2631278169970655e+19
4.0367444777459606e+19
3.447206968260748e+18
-3.6580806751389995e+19
-6.303659285753283e+19
-6.635415583207268e+19
-6.1639869979140915e+19
-6.025793214377552e+19
-4.812147898228186e+19
-2.3570548865453224e+19
5.969152871705181e+16
2.2131869374044766e+19
4.087187189263307e+19
4.284752233290154e+19
4.237587291845487e+19
4.9151160509720945e+19
6.372626629366868e+19
7.472311977573438e+19
6.213603031090092e+19
2.7700238723617698e+19
1.143421726311306e+19
2.613814709733652e+19
3.773532367437119e+19
4.621176391214532e+19
6.027911128186061e+19
6.91109548858785e+19
6.775952942106347e+19
6.380640225420007e+19
4.927761465477253e+19
1.33348808650866e+19
-3.6465996353997423e+19
-6.705818392480091e+19
-7.130879149064349e+19
-6.217945652111094e+19
-4.3781422233614836e+19
-1.5469353991611197e+19
5.04571138619052e+18
1.064272320036519e+19
-8.253798259150124e+18
-5.285074581982512e+19
-7.267387434286718e+19
-3.065478448269688e+19
1.4549450405445327e+19
1.4315167688693527e+19
-4.969744012950176e+18
-1.703507182749476e+19
-2.7850529706790044e+19
-3.646763555376333e+19
-5.203602718429913e+19
-7.764316580949536e+19
-8.019700774797861e+19
-4.535526495822573e+19
-1.4963746472976867e+19
-6.546861347780242e+18
-8.761489960871824e+18
-1.3657404932869386e+19
-1.5547582821069095e+19
-1.3943239401179537e+19
-1.5235316607547478e+19
-1.0502720506290686e+19
4.4916583633384366e+18
2.220905141424449e+19
3.466735184186693e+19
2.7401822210858082e+19
4.4342173321614116e+18
-1.2517047341771346e+19
-1.6796708381895606e+19
-7.684421287598793e+18
9.55353249762251e+18
1.755434329446946e+19
1.0612381802474772e+19
-7.476687192791578e+18
-3.215224055388953e+19
-5.917721535038887e+19
-7.791346442153858e+19
-8.34784541017896e+19
-8.562465139210722e+19
-8.319662076293113e+19
-7.000449070229109e+19
-5.390568491220946e+19
-4.3210836043994776e+19
-4.367157253079445e+19
-5.1808317610135765e+19
-5.429873657677793e+19
-4.599840468425402e+19
-1.9029127522969965e+19
2.9999183893712503e+19
7.851431076802254e+19
9.829737141326291e+19
9.102363990507654e+19
6.58072575553973e+19
1.76200721584657e+19
2.1891106090583933e+19
3.0498773260062056e+19
4.2571643758127596e+19
4.880930262724891e+19
5.2787141180349915e+19
6.134727313394285e+19
7.615294922217731e+19
9.236530938968195e+19
1.0275319610672372e+20
9.54333387023362e+19
6.605624148032736e+19
2.1827234526976336e+19
-2.2696777305608372e+19
-5.114387440976044e+19
-6.509390302147519e+19
-7.846956986002442e+19
-7.918836991448518e+19
-5.966726941467895e+19
-3.710292933004185e+19
-1.5581616739998738e+19
1.3505936645481847e+19
3.5585382918831665e+19
4.990961948583285e+19
6.566753512051713e+19
8.46702996463288e+19
9.492543658252845e+19
7.971678036180628e+19
4.124076923037632e+19
1.6130336225759187e+19
2.314294797590449e+19
3.159427406763829e+19
3.785228901005414e+19
5.38458507086339e+19
6.960613958907471e+19
7.478139905899702e+19
8.0891800171115e+19
8.336795335814437e+19
6.375313734394935e+19
2.1853308155270144e+19
-1.917099330953536e+19
-4.888151143901649e+19
-7.419824455255471e+19
-7.772811628278968e+19
-4.8220164435739165e+19
-1.140407259719662e+19
2.5403388208103665e+18
-1.0570563941099508e+19
-4.525666903286606e+19
-5.6625924681007055e+19
-1.2842750535684233e+19
4.050400784794691e+19
4.283566435001596e+19
2.1051531745491345e+19
1.6758382018379866e+19
1.5789886772564042e+19
-9.764270542085423e+18
-5.438354563562096e+19
-9.321176408419508e+19
-1.0144638206459843e+20
-6.411759366111428e+19
-1.9019937628910973e+19
1.8153715720589258e+18
3.092023177504583e+18
-5.773819929532815e+18
-1.773637455060713e+19
-2.895039131122221e+19
-3.965155693022804e+19